GENERATED DL_POLY CONFIG                                                
2 1 4096000                                                             
528.0 0.0 0.0                                                           
0.0 528.0 0.0                                                           
0.0 0.0 528.0                                                           
